<?xml version="1.0" encoding="UTF-8"?>

<!-- generated on 2026-03-18T22:50:43.001503+05:30 by Eclipse SUMO sumo 1.25.0
<sumoConfiguration xmlns:xsi="http://www.w3.org/2001/XMLSchema-instance" xsi:noNamespaceSchemaLocation="http://sumo.dlr.de/xsd/sumoConfiguration.xsd">

    <input>
        <net-file value="sumo_files/city.net.xml"/>
        <route-files value="sumo_files/city.rou.xml"/>
    </input>

    <output>
        <fcd-output value="sumo_files/../trace_files/fcd.xml"/>
    </output>

    <time>
        <begin value="0"/>
        <end value="300"/>
    </time>

</sumoConfiguration>
-->

<fcd-export xmlns:xsi="http://www.w3.org/2001/XMLSchema-instance" xsi:noNamespaceSchemaLocation="http://sumo.dlr.de/xsd/fcd_file.xsd">
    <timestep time="0.00">
        <vehicle id="0" x="3967.86" y="4805.09" angle="101.92" type="car" speed="0.00" pos="5.10" lane="26755354#9_0" slope="0.00"/>
    </timestep>
    <timestep time="1.00">
        <vehicle id="0" x="3969.14" y="4804.82" angle="101.92" type="car" speed="1.30" pos="6.40" lane="26755354#9_0" slope="0.00"/>
    </timestep>
    <timestep time="2.00">
        <vehicle id="0" x="3972.04" y="4804.21" angle="101.92" type="car" speed="2.96" pos="9.37" lane="26755354#9_0" slope="0.00"/>
    </timestep>
    <timestep time="3.00">
        <vehicle id="0" x="3976.86" y="4803.19" angle="101.92" type="car" speed="4.93" pos="14.30" lane="26755354#9_0" slope="0.00"/>
    </timestep>
    <timestep time="4.00">
        <vehicle id="0" x="3981.15" y="4802.28" angle="101.92" type="car" speed="4.38" pos="18.68" lane="26755354#9_0" slope="0.00"/>
    </timestep>
    <timestep time="5.00">
        <vehicle id="0" x="3984.38" y="4803.26" angle="80.85" type="car" speed="3.74" pos="2.37" lane=":293457275_6_0" slope="0.00"/>
    </timestep>
    <timestep time="6.00">
        <vehicle id="0" x="3982.84" y="4805.20" angle="6.31" type="car" speed="2.62" pos="0.32" lane="-26755354#9_0" slope="0.00"/>
        <vehicle id="1" x="4450.63" y="2789.71" angle="37.29" type="car" speed="0.00" pos="5.10" lane="-367744026#1_0" slope="0.00"/>
    </timestep>
    <timestep time="7.00">
        <vehicle id="0" x="3978.64" y="4806.08" angle="284.44" type="car" speed="4.29" pos="4.61" lane="-26755354#9_0" slope="0.00"/>
        <vehicle id="1" x="4451.67" y="2791.07" angle="37.29" type="car" speed="1.71" pos="6.81" lane="-367744026#1_0" slope="0.00"/>
    </timestep>
    <timestep time="8.00">
        <vehicle id="0" x="3972.59" y="4807.36" angle="281.94" type="car" speed="6.18" pos="10.79" lane="-26755354#9_0" slope="0.00"/>
        <vehicle id="1" x="4454.04" y="2794.18" angle="37.29" type="car" speed="3.91" pos="10.72" lane="-367744026#1_0" slope="0.00"/>
    </timestep>
    <timestep time="9.00">
        <vehicle id="0" x="3964.73" y="4809.03" angle="281.94" type="car" speed="8.03" pos="18.83" lane="-26755354#9_0" slope="0.00"/>
        <vehicle id="1" x="4457.28" y="2798.44" angle="37.29" type="car" speed="5.36" pos="16.08" lane="-367744026#1_0" slope="0.00"/>
    </timestep>
    <timestep time="10.00">
        <vehicle id="0" x="3956.05" y="4810.88" angle="282.10" type="car" speed="8.87" pos="7.65" lane=":6950306442_4_0" slope="0.00"/>
        <vehicle id="1" x="4461.39" y="2803.83" angle="37.29" type="car" speed="6.78" pos="22.86" lane="-367744026#1_0" slope="0.00"/>
    </timestep>
    <timestep time="11.00">
        <vehicle id="0" x="3946.75" y="4812.89" angle="282.21" type="car" speed="9.52" pos="2.76" lane="-26755354#8_0" slope="0.00"/>
        <vehicle id="1" x="4467.05" y="2811.27" angle="37.29" type="car" speed="9.35" pos="32.20" lane="-367744026#1_0" slope="0.00"/>
    </timestep>
    <timestep time="12.00">
        <vehicle id="0" x="3937.00" y="4815.01" angle="282.30" type="car" speed="9.98" pos="12.74" lane="-26755354#8_0" slope="0.00"/>
        <vehicle id="1" x="4473.06" y="2819.16" angle="37.29" type="car" speed="9.92" pos="42.13" lane="-367744026#1_0" slope="0.00"/>
        <vehicle id="2" x="2915.19" y="5199.37" angle="1.84" type="car" speed="0.00" pos="5.10" lane="26755893#0_0" slope="0.00"/>
    </timestep>
    <timestep time="13.00">
        <vehicle id="0" x="3927.30" y="4817.13" angle="282.30" type="car" speed="9.93" pos="22.67" lane="-26755354#8_0" slope="0.00"/>
        <vehicle id="1" x="4468.12" y="2824.44" angle="303.35" type="car" speed="8.84" pos="50.96" lane="-367744026#1_0" slope="0.00"/>
        <vehicle id="2" x="2915.24" y="5200.74" angle="1.84" type="car" speed="1.38" pos="6.48" lane="26755893#0_0" slope="0.00"/>
    </timestep>
    <timestep time="14.00">
        <vehicle id="0" x="3917.61" y="4819.24" angle="282.30" type="car" speed="9.91" pos="32.58" lane="-26755354#8_0" slope="0.00"/>
        <vehicle id="1" x="4460.56" y="2829.42" angle="303.35" type="car" speed="9.05" pos="60.02" lane="-367744026#1_0" slope="0.00"/>
        <vehicle id="2" x="2915.36" y="5204.64" angle="1.84" type="car" speed="3.90" pos="10.37" lane="26755893#0_0" slope="0.00"/>
    </timestep>
    <timestep time="15.00">
        <vehicle id="0" x="3907.87" y="4821.36" angle="282.30" type="car" speed="9.98" pos="42.56" lane="-26755354#8_0" slope="0.00"/>
        <vehicle id="1" x="4452.54" y="2834.69" angle="303.35" type="car" speed="9.60" pos="69.62" lane="-367744026#1_0" slope="0.00"/>
        <vehicle id="2" x="2915.56" y="5210.88" angle="1.84" type="car" speed="6.25" pos="16.62" lane="26755893#0_0" slope="0.00"/>
    </timestep>
    <timestep time="16.00">
        <vehicle id="0" x="3899.43" y="4823.20" angle="282.30" type="car" speed="8.64" pos="51.19" lane="-26755354#8_0" slope="0.00"/>
        <vehicle id="1" x="4445.46" y="2840.45" angle="311.37" type="car" speed="9.15" pos="78.76" lane="-367744026#1_0" slope="0.00"/>
        <vehicle id="2" x="2915.84" y="5219.33" angle="1.84" type="car" speed="8.46" pos="25.08" lane="26755893#0_0" slope="0.00"/>
    </timestep>
    <timestep time="17.00">
        <vehicle id="0" x="3895.39" y="4824.08" angle="282.30" type="car" speed="4.14" pos="55.33" lane="-26755354#8_0" slope="0.00"/>
        <vehicle id="1" x="4438.80" y="2846.31" angle="311.37" type="car" speed="8.86" pos="87.63" lane="-367744026#1_0" slope="0.00"/>
        <vehicle id="2" x="2916.12" y="5228.09" angle="1.84" type="car" speed="8.77" pos="33.84" lane="26755893#0_0" slope="0.00"/>
    </timestep>
    <timestep time="18.00">
        <vehicle id="0" x="3889.68" y="4824.20" angle="269.39" type="car" speed="5.80" pos="4.97" lane=":293452678_6_0" slope="0.00"/>
        <vehicle id="1" x="4431.53" y="2852.71" angle="311.37" type="car" speed="9.69" pos="97.32" lane="-367744026#1_0" slope="0.00"/>
        <vehicle id="2" x="2916.43" y="5237.82" angle="1.84" type="car" speed="9.73" pos="43.58" lane="26755893#0_0" slope="0.00"/>
        <vehicle id="3" x="4313.16" y="4023.73" angle="38.86" type="car" speed="0.00" pos="5.10" lane="478768552#14_0" slope="0.00"/>
    </timestep>
    <timestep time="19.00">
        <vehicle id="0" x="3884.19" y="4818.58" angle="212.45" type="car" speed="8.29" pos="13.26" lane=":293452678_6_0" slope="0.00"/>
        <vehicle id="1" x="4424.12" y="2859.24" angle="311.37" type="car" speed="9.87" pos="107.19" lane="-367744026#1_0" slope="0.00"/>
        <vehicle id="2" x="2916.64" y="5244.45" angle="1.84" type="car" speed="6.64" pos="50.21" lane="26755893#0_0" slope="0.00"/>
        <vehicle id="3" x="4314.18" y="4025.00" angle="38.86" type="car" speed="1.63" pos="6.73" lane="478768552#14_0" slope="0.00"/>
    </timestep>
    <timestep time="20.00">
        <vehicle id="0" x="3881.98" y="4810.94" angle="194.92" type="car" speed="7.97" pos="6.75" lane="26755335#0_0" slope="0.00"/>
        <vehicle id="1" x="4417.83" y="2866.75" angle="323.73" type="car" speed="9.84" pos="117.03" lane="-367744026#1_0" slope="0.00"/>
        <vehicle id="2" x="2914.47" y="5251.40" angle="336.59" type="car" speed="7.49" pos="3.46" lane=":293461938_10_0" slope="0.00"/>
        <vehicle id="3" x="4316.23" y="4027.54" angle="38.86" type="car" speed="3.27" pos="10.00" lane="478768552#14_0" slope="0.00"/>
    </timestep>
    <timestep time="21.00">
        <vehicle id="0" x="3879.56" y="4801.83" angle="194.92" type="car" speed="9.42" pos="16.17" lane="26755335#0_0" slope="0.00"/>
        <vehicle id="1" x="4412.05" y="2874.63" angle="323.73" type="car" speed="9.78" pos="126.81" lane="-367744026#1_0" slope="0.00"/>
        <vehicle id="2" x="2907.19" y="5253.80" angle="279.50" type="car" speed="7.83" pos="1.14" lane="-26755299#1_0" slope="0.00"/>
        <vehicle id="3" x="4319.37" y="4031.44" angle="38.86" type="car" speed="5.00" pos="15.00" lane="478768552#14_0" slope="0.00"/>
    </timestep>
    <timestep time="22.00">
        <vehicle id="0" x="3877.18" y="4792.91" angle="194.92" type="car" speed="9.23" pos="25.41" lane="26755335#0_0" slope="0.00"/>
        <vehicle id="1" x="4409.44" y="2883.72" angle="355.47" type="car" speed="9.80" pos="136.61" lane="-367744026#1_0" slope="0.00"/>
        <vehicle id="2" x="2898.06" y="5254.30" angle="273.11" type="car" speed="9.15" pos="10.29" lane="-26755299#1_0" slope="0.00"/>
        <vehicle id="3" x="4323.62" y="4036.71" angle="38.86" type="car" speed="6.77" pos="21.76" lane="478768552#14_0" slope="0.00"/>
    </timestep>
    <timestep time="23.00">
        <vehicle id="0" x="3874.67" y="4783.50" angle="194.92" type="car" speed="9.74" pos="35.15" lane="26755335#0_0" slope="0.00"/>
        <vehicle id="1" x="4408.72" y="2892.80" angle="355.47" type="car" speed="9.11" pos="145.72" lane="-367744026#1_0" slope="0.00"/>
        <vehicle id="2" x="2888.13" y="5254.84" angle="273.11" type="car" speed="9.94" pos="20.23" lane="-26755299#1_0" slope="0.00"/>
        <vehicle id="3" x="4329.10" y="4043.51" angle="38.86" type="car" speed="8.75" pos="30.51" lane="478768552#14_0" slope="0.00"/>
    </timestep>
    <timestep time="24.00">
        <vehicle id="0" x="3872.12" y="4773.92" angle="194.92" type="car" speed="9.92" pos="45.06" lane="26755335#0_0" slope="0.00"/>
        <vehicle id="1" x="4408.45" y="2902.03" angle="0.38" type="car" speed="9.24" pos="154.96" lane="-367744026#1_0" slope="0.00"/>
        <vehicle id="2" x="2878.54" y="5255.36" angle="273.11" type="car" speed="9.61" pos="29.84" lane="-26755299#1_0" slope="0.00"/>
        <vehicle id="3" x="4335.00" y="4050.83" angle="38.86" type="car" speed="9.39" pos="39.90" lane="478768552#14_0" slope="0.00"/>
        <vehicle id="4" x="3842.46" y="5254.14" angle="276.35" type="car" speed="0.00" pos="5.10" lane="-875799006_0" slope="0.00"/>
    </timestep>
    <timestep time="25.00">
        <vehicle id="0" x="3869.78" y="4765.14" angle="194.92" type="car" speed="9.09" pos="54.15" lane="26755335#0_0" slope="0.00"/>
        <vehicle id="1" x="4408.51" y="2911.52" angle="0.38" type="car" speed="9.49" pos="164.45" lane="-367744026#1_0" slope="0.00"/>
        <vehicle id="2" x="2869.25" y="5255.78" angle="272.17" type="car" speed="9.30" pos="39.14" lane="-26755299#1_0" slope="0.00"/>
        <vehicle id="3" x="4340.74" y="4057.95" angle="38.86" type="car" speed="9.15" pos="49.05" lane="478768552#14_0" slope="0.00"/>
        <vehicle id="4" x="3839.92" y="5254.43" angle="276.35" type="car" speed="2.55" pos="7.65" lane="-875799006_0" slope="0.00"/>
    </timestep>
    <timestep time="26.00">
        <vehicle id="0" x="3867.27" y="4755.72" angle="194.92" type="car" speed="9.75" pos="63.90" lane="26755335#0_0" slope="0.00"/>
        <vehicle id="1" x="4408.57" y="2920.23" angle="0.38" type="car" speed="8.72" pos="173.17" lane="-367744026#1_0" slope="0.00"/>
        <vehicle id="2" x="2860.14" y="5256.09" angle="271.97" type="car" speed="9.12" pos="48.26" lane="-26755299#1_0" slope="0.00"/>
        <vehicle id="3" x="4346.21" y="4064.74" angle="38.86" type="car" speed="8.73" pos="57.77" lane="478768552#14_0" slope="0.00"/>
        <vehicle id="4" x="3834.87" y="5254.99" angle="276.35" type="car" speed="5.08" pos="12.73" lane="-875799006_0" slope="0.00"/>
    </timestep>
    <timestep time="27.00">
        <vehicle id="0" x="3864.92" y="4746.91" angle="194.92" type="car" speed="9.12" pos="73.01" lane="26755335#0_0" slope="0.00"/>
        <vehicle id="1" x="4408.89" y="2929.27" angle="2.58" type="car" speed="9.04" pos="182.21" lane="-367744026#1_0" slope="0.00"/>
        <vehicle id="2" x="2850.40" y="5256.43" angle="271.97" type="car" speed="9.74" pos="58.00" lane="-26755299#1_0" slope="0.00"/>
        <vehicle id="3" x="4352.29" y="4072.29" angle="38.86" type="car" speed="9.69" pos="67.47" lane="478768552#14_0" slope="0.00"/>
        <vehicle id="4" x="3828.84" y="5255.66" angle="276.35" type="car" speed="6.07" pos="18.80" lane="-875799006_0" slope="0.00"/>
    </timestep>
    <timestep time="28.00">
        <vehicle id="0" x="3862.60" y="4738.19" angle="194.92" type="car" speed="9.03" pos="82.04" lane="26755335#0_0" slope="0.00"/>
        <vehicle id="1" x="4409.33" y="2938.92" angle="2.58" type="car" speed="9.66" pos="191.87" lane="-367744026#1_0" slope="0.00"/>
        <vehicle id="2" x="2840.81" y="5256.76" angle="271.97" type="car" speed="9.59" pos="67.59" lane="-26755299#1_0" slope="0.00"/>
        <vehicle id="3" x="4355.76" y="4076.60" angle="38.86" type="car" speed="5.53" pos="73.00" lane="478768552#14_0" slope="0.00"/>
        <vehicle id="4" x="3820.91" y="5255.42" angle="263.53" type="car" speed="8.04" pos="5.15" lane=":8151563184_4_0" slope="0.00"/>
    </timestep>
    <timestep time="29.00">
        <vehicle id="0" x="3860.06" y="4728.65" angle="194.92" type="car" speed="9.87" pos="91.91" lane="26755335#0_0" slope="0.00"/>
        <vehicle id="1" x="4409.68" y="2946.76" angle="2.58" type="car" speed="7.84" pos="199.72" lane="-367744026#1_0" slope="0.00"/>
        <vehicle id="2" x="2831.21" y="5257.09" angle="271.97" type="car" speed="9.61" pos="77.20" lane="-26755299#1_0" slope="0.00"/>
        <vehicle id="3" x="4355.43" y="4079.02" angle="14.79" type="car" speed="2.70" pos="1.09" lane=":4719689708_11_0" slope="0.00"/>
        <vehicle id="4" x="3816.06" y="5249.79" angle="209.61" type="car" speed="7.85" pos="13.00" lane=":8151563184_4_0" slope="0.00"/>
    </timestep>
    <timestep time="30.00">
        <vehicle id="0" x="3857.74" y="4719.95" angle="194.92" type="car" speed="9.00" pos="100.91" lane="26755335#0_0" slope="0.00"/>
        <vehicle id="1" x="4409.48" y="2950.99" angle="358.02" type="car" speed="4.25" pos="2.74" lane=":3716311378_1_0" slope="0.00"/>
        <vehicle id="2" x="2821.31" y="5257.43" angle="271.97" type="car" speed="9.91" pos="87.11" lane="-26755299#1_0" slope="0.00"/>
        <vehicle id="3" x="4352.34" y="4077.46" angle="260.99" type="car" speed="3.78" pos="1.64" lane="-478768552#14_0" slope="0.00"/>
        <vehicle id="4" x="3814.59" y="5242.59" angle="190.11" type="car" speed="7.35" pos="6.09" lane="875799005#1_0" slope="0.00"/>
        <vehicle id="5" x="2356.38" y="4011.59" angle="212.95" type="car" speed="0.00" pos="0.20" lane="-1208795194_0" slope="0.00"/>
    </timestep>
    <timestep time="31.00">
        <vehicle id="0" x="3855.18" y="4710.32" angle="194.92" type="car" speed="9.97" pos="110.88" lane="26755335#0_0" slope="0.00"/>
        <vehicle id="1" x="4406.79" y="2955.64" angle="326.89" type="car" speed="5.63" pos="4.11" lane=":3716311378_9_0" slope="0.00"/>
        <vehicle id="2" x="2812.59" y="5257.73" angle="271.97" type="car" speed="8.73" pos="95.83" lane="-26755299#1_0" slope="0.00"/>
        <vehicle id="3" x="4348.99" y="4073.31" angle="218.86" type="car" speed="5.33" pos="6.97" lane="-478768552#14_0" slope="0.00"/>
        <vehicle id="4" x="3812.85" y="5232.84" angle="190.11" type="car" speed="9.90" pos="15.99" lane="875799005#1_0" slope="0.00"/>
        <vehicle id="5" x="2357.05" y="4009.33" angle="188.43" type="car" speed="2.60" pos="2.60" lane=":6985773024_1_0" slope="0.00"/>
    </timestep>
    <timestep time="32.00">
        <vehicle id="0" x="3852.92" y="4701.86" angle="194.92" type="car" speed="8.75" pos="119.63" lane="26755335#0_0" slope="0.00"/>
        <vehicle id="1" x="4400.53" y="2957.20" angle="278.64" type="car" speed="6.59" pos="0.51" lane="-1110964274_0" slope="0.00"/>
        <vehicle id="2" x="2802.60" y="5258.07" angle="271.97" type="car" speed="9.99" pos="105.83" lane="-26755299#1_0" slope="0.00"/>
        <vehicle id="3" x="4344.62" y="4067.88" angle="218.86" type="car" speed="6.98" pos="13.95" lane="-478768552#14_0" slope="0.00"/>
        <vehicle id="4" x="3811.17" y="5223.38" angle="190.11" type="car" speed="9.61" pos="25.61" lane="875799005#1_0" slope="0.00"/>
        <vehicle id="5" x="2359.57" y="4010.41" angle="101.80" type="car" speed="2.92" pos="0.64" lane=":2833482043_3_0" slope="0.00"/>
    </timestep>
    <timestep time="33.00">
        <vehicle id="0" x="3850.67" y="4693.40" angle="194.92" type="car" speed="8.76" pos="128.39" lane="26755335#0_0" slope="0.00"/>
        <vehicle id="1" x="4391.93" y="2957.05" angle="269.00" type="car" speed="8.60" pos="9.12" lane="-1110964274_0" slope="0.00"/>
        <vehicle id="2" x="2793.84" y="5258.37" angle="271.97" type="car" speed="8.76" pos="114.59" lane="-26755299#1_0" slope="0.00"/>
        <vehicle id="3" x="4339.07" y="4060.99" angle="218.86" type="car" speed="8.85" pos="22.80" lane="-478768552#14_0" slope="0.00"/>
        <vehicle id="4" x="3809.44" y="5213.70" angle="190.11" type="car" speed="9.84" pos="35.44" lane="875799005#1_0" slope="0.00"/>
        <vehicle id="5" x="2363.04" y="4012.35" angle="57.40" type="car" speed="4.16" pos="4.80" lane=":2833482043_3_0" slope="0.00"/>
    </timestep>
    <timestep time="34.00">
        <vehicle id="0" x="3848.35" y="4684.70" angle="194.92" type="car" speed="9.00" pos="137.39" lane="26755335#0_0" slope="0.00"/>
        <vehicle id="1" x="4382.39" y="2956.88" angle="269.00" type="car" speed="9.54" pos="18.66" lane="-1110964274_0" slope="0.00"/>
        <vehicle id="2" x="2784.72" y="5258.68" angle="271.97" type="car" speed="9.13" pos="123.72" lane="-26755299#1_0" slope="0.00"/>
        <vehicle id="3" x="4333.47" y="4054.05" angle="218.86" type="car" speed="8.91" pos="31.71" lane="-478768552#14_0" slope="0.00"/>
        <vehicle id="4" x="3807.75" y="5204.20" angle="190.11" type="car" speed="9.64" pos="45.09" lane="875799005#1_0" slope="0.00"/>
        <vehicle id="5" x="2367.86" y="4010.33" angle="113.92" type="car" speed="5.33" pos="1.38" lane="1208795193#0_0" slope="0.00"/>
    </timestep>
    <timestep time="35.00">
        <vehicle id="0" x="3845.93" y="4675.60" angle="194.92" type="car" speed="9.42" pos="146.82" lane="26755335#0_0" slope="0.00"/>
        <vehicle id="1" x="4375.98" y="2957.34" angle="275.63" type="car" speed="6.49" pos="2.77" lane=":3717990094_0_0" slope="0.00"/>
        <vehicle id="2" x="2775.29" y="5259.01" angle="271.97" type="car" speed="9.44" pos="133.16" lane="-26755299#1_0" slope="0.00"/>
        <vehicle id="3" x="4327.55" y="4046.69" angle="218.86" type="car" speed="9.45" pos="41.16" lane="-478768552#14_0" slope="0.00"/>
        <vehicle id="4" x="3806.16" y="5195.32" angle="190.11" type="car" speed="9.03" pos="54.11" lane="875799005#1_0" slope="0.00"/>
        <vehicle id="5" x="2373.53" y="4006.45" angle="124.40" type="car" speed="6.87" pos="8.25" lane="1208795193#0_0" slope="0.00"/>
    </timestep>
    <timestep time="36.00">
        <vehicle id="0" x="3843.52" y="4666.58" angle="194.92" type="car" speed="9.33" pos="156.15" lane="26755335#0_0" slope="0.00"/>
        <vehicle id="1" x="4371.51" y="2962.06" angle="322.69" type="car" speed="6.67" pos="0.70" lane="-367932791#2_0" slope="0.00"/>
        <vehicle id="2" x="2766.47" y="5259.31" angle="271.97" type="car" speed="8.83" pos="141.98" lane="-26755299#1_0" slope="0.00"/>
        <vehicle id="3" x="4321.58" y="4039.28" angle="218.86" type="car" speed="9.51" pos="50.67" lane="-478768552#14_0" slope="0.00"/>
        <vehicle id="4" x="3804.42" y="5185.52" angle="190.11" type="car" speed="9.95" pos="64.06" lane="875799005#1_0" slope="0.00"/>
        <vehicle id="5" x="2380.36" y="4001.77" angle="124.40" type="car" speed="8.27" pos="16.52" lane="1208795193#0_0" slope="0.00"/>
        <vehicle id="6" x="4028.71" y="2785.58" angle="131.36" type="car" speed="0.00" pos="5.10" lane="26755395#5_0" slope="0.00"/>
    </timestep>
    <timestep time="37.00">
        <vehicle id="0" x="3841.20" y="4657.82" angle="194.85" type="car" speed="9.07" pos="8.98" lane=":10128190729_0_0" slope="0.00"/>
        <vehicle id="1" x="4367.37" y="2970.26" angle="333.18" type="car" speed="9.19" pos="9.89" lane="-367932791#2_0" slope="0.00"/>
        <vehicle id="2" x="2757.27" y="5259.62" angle="271.97" type="car" speed="9.20" pos="151.18" lane="-26755299#1_0" slope="0.00"/>
        <vehicle id="3" x="4316.06" y="4032.43" angle="218.86" type="car" speed="8.79" pos="59.47" lane="-478768552#14_0" slope="0.00"/>
        <vehicle id="4" x="3802.72" y="5176.02" angle="190.11" type="car" speed="9.65" pos="73.72" lane="875799005#1_0" slope="0.00"/>
        <vehicle id="5" x="2388.16" y="3996.43" angle="124.40" type="car" speed="9.44" pos="25.96" lane="1208795193#0_0" slope="0.00"/>
        <vehicle id="6" x="4029.79" y="2784.63" angle="131.36" type="car" speed="1.44" pos="6.54" lane="26755395#5_0" slope="0.00"/>
    </timestep>
    <timestep time="38.00">
        <vehicle id="0" x="3838.89" y="4649.11" angle="194.83" type="car" speed="9.01" pos="3.58" lane="26755335#1_0" slope="0.00"/>
        <vehicle id="1" x="4363.29" y="2978.32" angle="333.18" type="car" speed="9.03" pos="18.92" lane="-367932791#2_0" slope="0.00"/>
        <vehicle id="2" x="2747.36" y="5259.96" angle="271.97" type="car" speed="9.92" pos="161.10" lane="-26755299#1_0" slope="0.00"/>
        <vehicle id="3" x="4310.75" y="4025.84" angle="218.86" type="car" speed="8.47" pos="67.94" lane="-478768552#14_0" slope="0.00"/>
        <vehicle id="4" x="3800.97" y="5166.18" angle="190.11" type="car" speed="9.99" pos="83.71" lane="875799005#1_0" slope="0.00"/>
        <vehicle id="5" x="2395.56" y="3991.36" angle="124.40" type="car" speed="8.96" pos="34.93" lane="1208795193#0_0" slope="0.00"/>
        <vehicle id="6" x="4032.71" y="2782.06" angle="131.36" type="car" speed="3.89" pos="10.43" lane="26755395#5_0" slope="0.00"/>
    </timestep>
    <timestep time="39.00">
        <vehicle id="0" x="3836.59" y="4640.41" angle="194.83" type="car" speed="9.00" pos="12.58" lane="26755335#1_0" slope="0.00"/>
        <vehicle id="1" x="4359.25" y="2986.30" angle="333.18" type="car" speed="8.95" pos="27.87" lane="-367932791#2_0" slope="0.00"/>
        <vehicle id="2" x="2738.19" y="5260.28" angle="271.97" type="car" speed="9.18" pos="170.28" lane="-26755299#1_0" slope="0.00"/>
        <vehicle id="3" x="4307.96" y="4022.38" angle="218.86" type="car" speed="4.44" pos="72.38" lane="-478768552#14_0" slope="0.00"/>
        <vehicle id="4" x="3799.54" y="5158.17" angle="190.11" type="car" speed="8.13" pos="91.84" lane="875799005#1_0" slope="0.00"/>
        <vehicle id="5" x="2403.09" y="3986.20" angle="124.40" type="car" speed="9.12" pos="44.05" lane="1208795193#0_0" slope="0.00"/>
        <vehicle id="6" x="4037.03" y="2778.25" angle="131.36" type="car" speed="5.75" pos="16.19" lane="26755395#5_0" slope="0.00"/>
    </timestep>
    <timestep time="40.00">
        <vehicle id="0" x="3834.23" y="4631.50" angle="194.83" type="car" speed="9.21" pos="21.80" lane="26755335#1_0" slope="0.00"/>
        <vehicle id="1" x="4354.78" y="2995.16" angle="333.18" type="car" speed="9.93" pos="37.80" lane="-367932791#2_0" slope="0.00"/>
        <vehicle id="2" x="2728.48" y="5260.61" angle="271.97" type="car" speed="9.72" pos="180.00" lane="-26755299#1_0" slope="0.00"/>
        <vehicle id="3" x="4304.32" y="4017.86" angle="218.80" type="car" speed="5.80" pos="5.02" lane=":10779771772_1_0" slope="0.00"/>
        <vehicle id="4" x="3798.76" y="5153.80" angle="190.11" type="car" speed="4.44" pos="96.28" lane="875799005#1_0" slope="0.00"/>
        <vehicle id="5" x="2412.38" y="3983.72" angle="124.40" type="car" speed="9.14" pos="53.19" lane="1208795193#0_1" slope="0.00"/>
        <vehicle id="6" x="4043.08" y="2772.93" angle="131.36" type="car" speed="8.06" pos="24.24" lane="26755395#5_0" slope="0.00"/>
    </timestep>
    <timestep time="41.00">
        <vehicle id="0" x="3831.69" y="4621.88" angle="194.83" type="car" speed="9.94" pos="31.74" lane="26755335#1_0" slope="0.00"/>
        <vehicle id="1" x="4350.71" y="3003.20" angle="333.18" type="car" speed="9.01" pos="46.81" lane="-367932791#2_0" slope="0.00"/>
        <vehicle id="2" x="2718.94" y="5260.95" angle="272.07" type="car" speed="9.54" pos="3.51" lane=":293461254_5_0" slope="0.00"/>
        <vehicle id="3" x="4299.33" y="4011.64" angle="218.80" type="car" speed="7.97" pos="13.00" lane=":10779771772_1_0" slope="0.00"/>
        <vehicle id="4" x="3799.91" y="5149.20" angle="164.93" type="car" speed="5.21" pos="3.43" lane=":8151563183_0_0" slope="0.00"/>
        <vehicle id="5" x="2420.34" y="3978.28" angle="124.40" type="car" speed="9.65" pos="62.84" lane="1208795193#0_1" slope="0.00"/>
        <vehicle id="6" x="4050.20" y="2766.65" angle="131.36" type="car" speed="9.50" pos="33.74" lane="26755395#5_0" slope="0.00"/>
    </timestep>
    <timestep time="42.00">
        <vehicle id="0" x="3829.21" y="4612.55" angle="194.83" type="car" speed="9.66" pos="41.40" lane="26755335#1_0" slope="0.00"/>
        <vehicle id="1" x="4343.50" y="3008.48" angle="297.36" type="car" speed="9.28" pos="56.09" lane="-367932791#2_0" slope="0.00"/>
        <vehicle id="2" x="2709.80" y="5261.29" angle="272.11" type="car" speed="9.15" pos="12.66" lane=":293461254_5_0" slope="0.00"/>
        <vehicle id="3" x="4293.17" y="4003.98" angle="218.78" type="car" speed="9.83" pos="7.11" lane="-478768552#13_0" slope="0.00"/>
        <vehicle id="4" x="3804.74" y="5147.94" angle="104.54" type="car" speed="5.03" pos="0.51" lane="26754699#8_0" slope="0.00"/>
        <vehicle id="5" x="2427.97" y="3973.05" angle="124.40" type="car" speed="9.26" pos="72.10" lane="1208795193#0_1" slope="0.00"/>
        <vehicle id="6" x="4056.84" y="2760.81" angle="131.36" type="car" speed="8.84" pos="42.58" lane="26755395#5_0" slope="0.00"/>
        <vehicle id="7" x="2549.35" y="2949.37" angle="286.61" type="car" speed="0.00" pos="5.10" lane="-26755756#3_0" slope="0.00"/>
    </timestep>
    <timestep time="43.00">
        <vehicle id="0" x="3826.83" y="4603.54" angle="194.83" type="car" speed="9.32" pos="50.72" lane="26755335#1_0" slope="0.00"/>
        <vehicle id="1" x="4335.27" y="3012.74" angle="297.36" type="car" speed="9.27" pos="65.36" lane="-367932791#2_0" slope="0.00"/>
        <vehicle id="2" x="2700.50" y="5261.64" angle="272.23" type="car" speed="9.31" pos="7.55" lane="-26755299#0_0" slope="0.00"/>
        <vehicle id="3" x="4287.71" y="3997.19" angle="218.78" type="car" speed="8.72" pos="15.83" lane="-478768552#13_0" slope="0.00"/>
        <vehicle id="4" x="3811.88" y="5147.19" angle="96.00" type="car" speed="7.18" pos="7.68" lane="26754699#8_0" slope="0.00"/>
        <vehicle id="5" x="2435.68" y="3967.77" angle="124.40" type="car" speed="9.35" pos="81.45" lane="1208795193#0_1" slope="0.00"/>
        <vehicle id="6" x="4062.45" y="2755.87" angle="131.36" type="car" speed="7.48" pos="50.06" lane="26755395#5_0" slope="0.00"/>
        <vehicle id="7" x="2547.32" y="2949.98" angle="286.61" type="car" speed="2.13" pos="7.23" lane="-26755756#3_0" slope="0.00"/>
    </timestep>
    <timestep time="44.00">
        <vehicle id="0" x="3824.34" y="4594.13" angle="194.83" type="car" speed="9.73" pos="60.44" lane="26755335#1_0" slope="0.00"/>
        <vehicle id="1" x="4326.44" y="3017.31" angle="297.36" type="car" speed="9.94" pos="75.30" lane="-367932791#2_0" slope="0.00"/>
        <vehicle id="2" x="2690.91" y="5262.02" angle="272.23" type="car" speed="9.60" pos="17.16" lane="-26755299#0_0" slope="0.00"/>
        <vehicle id="3" x="4281.64" y="3989.36" angle="217.71" type="car" speed="9.90" pos="25.73" lane="-478768552#13_0" slope="0.00"/>
        <vehicle id="4" x="3820.42" y="5146.29" angle="96.00" type="car" speed="8.58" pos="16.27" lane="26754699#8_0" slope="0.00"/>
        <vehicle id="5" x="2443.92" y="3962.13" angle="124.40" type="car" speed="9.99" pos="91.44" lane="1208795193#0_1" slope="0.00"/>
        <vehicle id="6" x="4064.77" y="2753.83" angle="131.36" type="car" speed="3.08" pos="53.15" lane="26755395#5_0" slope="0.00"/>
        <vehicle id="7" x="2543.59" y="2951.09" angle="286.61" type="car" speed="3.89" pos="11.12" lane="-26755756#3_0" slope="0.00"/>
    </timestep>
    <timestep time="45.00">
        <vehicle id="0" x="3821.85" y="4584.75" angle="194.83" type="car" speed="9.71" pos="70.15" lane="26755335#1_0" slope="0.00"/>
        <vehicle id="1" x="4317.79" y="3021.84" angle="297.94" type="car" speed="9.76" pos="85.06" lane="-367932791#2_0" slope="0.00"/>
        <vehicle id="2" x="2681.50" y="5262.38" angle="272.23" type="car" speed="9.41" pos="26.57" lane="-26755299#0_0" slope="0.00"/>
        <vehicle id="3" x="4275.73" y="3981.71" angle="217.71" type="car" speed="9.67" pos="35.40" lane="-478768552#13_0" slope="0.00"/>
        <vehicle id="4" x="3829.31" y="5145.35" angle="96.00" type="car" speed="8.94" pos="25.20" lane="26754699#8_0" slope="0.00"/>
        <vehicle id="5" x="2451.29" y="3957.08" angle="124.40" type="car" speed="8.95" pos="100.39" lane="1208795193#0_1" slope="0.00"/>
        <vehicle id="6" x="4067.16" y="2752.95" angle="120.24" type="car" speed="2.70" pos="0.14" lane=":3717990081_11_0" slope="0.00"/>
        <vehicle id="7" x="2537.63" y="2952.87" angle="286.61" type="car" speed="6.22" pos="17.34" lane="-26755756#3_0" slope="0.00"/>
    </timestep>
    <timestep time="46.00">
        <vehicle id="0" x="3819.51" y="4575.88" angle="194.83" type="car" speed="9.17" pos="79.33" lane="26755335#1_0" slope="0.00"/>